LAMMPS Description

225 atoms
847 bonds
196 angles
378 dihedrals

3 atom types
7 bond types
2 angle types
2 dihedral types

-5000.0 5000.0 xlo xhi
-5000.0 5000.0 ylo yhi
-5000.0 5000.0 zlo zhi

Masses

  1 1.0
  2 1.0
  3 1.0

Bond Coeffs

  1 harmonic 0.83 43.4
  2 harmonic 0.79 43.1
  3 morse 2.52 0.28 51.0
  4 morse 2.80 0.20 54.2
  5 morse 1.33 0.35 56.9
  6 morse 2.51 0.11 76.4
  7 morse 2.43 0.09 62.1

Angle Coeffs

  1 85.3 171.2
  2 81.6 170.9

Dihedral Coeffs

  1 harmonic 1.15 -1 1
  2 quadratic 3.40 152.7

Atoms

  1 1 2 164.29931640625 419.398193359375 59.08028030395508
  2 1 1 185.00930786132812 396.6944580078125 89.3182373046875
  3 1 2 200.8419647216797 376.4883117675781 124.40644073486328
  4 1 1 208.0966339111328 358.99639892578125 164.42747497558594
  5 1 2 213.01821899414062 350.34893798828125 207.9547882080078
  6 1 1 214.99969482421875 343.8973388671875 252.18838500976562
  7 1 2 219.61195373535156 342.22601318359375 294.4310302734375
  8 1 1 219.7843017578125 344.2553405761719 338.6147766113281
  9 1 2 219.15975952148438 348.8753967285156 381.30743408203125
  10 1 1 220.42752075195312 351.60809326171875 423.6148681640625
  11 1 2 221.69752502441406 355.6158142089844 465.3799133300781
  12 1 1 215.11619567871094 358.7611083984375 505.7348937988281
  13 1 2 216.0822296142578 361.93463134765625 549.936767578125
  14 1 1 217.90298461914062 364.14453125 592.333984375
  15 1 2 220.248291015625 363.74542236328125 634.8519287109375
  16 1 3 221.7018280029297 362.40838623046875 677.6502685546875
  17 1 2 212.35760498046875 441.5555419921875 67.300537109375
  18 1 1 230.1972198486328 424.45782470703125 102.68221282958984
  19 1 2 241.502197265625 404.37310791015625 137.44662475585938
  20 1 1 251.412841796875 387.5741882324219 177.0557861328125
  21 1 2 257.0109558105469 375.64483642578125 216.59786987304688
  22 1 1 261.1947937011719 369.5834045410156 260.425048828125
  23 1 2 265.3220520019531 365.79022216796875 301.42767333984375
  24 1 1 267.1917419433594 364.3448181152344 346.6110534667969
  25 1 2 270.4688720703125 366.469970703125 388.097900390625
  26 1 1 272.15325927734375 366.790283203125 430.84783935546875
  27 1 2 271.41522216796875 368.08355712890625 474.0210266113281
  28 1 1 269.12310791015625 368.0589294433594 517.7489624023438
  29 1 2 270.7082824707031 367.494140625 558.6796264648438
  30 1 1 272.9123840332031 365.8199462890625 601.5169677734375
  31 1 2 272.8059997558594 365.60614013671875 643.93994140625
  32 1 3 274.1958312988281 364.269775390625 686.92578125
  33 1 2 252.71849060058594 478.880859375 105.12803649902344
  34 1 1 273.40460205078125 450.970947265625 128.8734588623047
  35 1 2 292.3063659667969 424.088623046875 155.26358032226562
  36 1 1 303.5256652832031 399.74493408203125 189.64971923828125
  37 1 2 311.6917419433594 383.2547607421875 229.36968994140625
  38 1 1 315.28668212890625 373.3183288574219 271.1522216796875
  39 1 2 317.40496826171875 367.0030517578125 313.4706115722656
  40 1 1 320.6057434082031 359.8614807128906 355.9105224609375
  41 1 2 322.21185302734375 355.07635498046875 397.74310302734375
  42 1 1 322.39068603515625 352.8756103515625 441.61590576171875
  43 1 2 321.6861572265625 351.1080322265625 482.8023986816406
  44 1 1 321.08154296875 346.27850341796875 526.1630249023438
  45 1 2 317.7835388183594 346.0366516113281 568.7951049804688
  46 1 1 321.07476806640625 346.2644958496094 612.3782348632812
  47 1 2 322.35174560546875 345.1886291503906 653.8599853515625
  48 1 3 322.30206298828125 343.0076904296875 695.9510498046875
  49 1 2 464.94854736328125 353.3558349609375 87.76872253417969
  50 1 1 442.1572570800781 339.3511657714844 121.8287582397461
  51 1 2 418.51983642578125 328.59014892578125 157.0128936767578
  52 1 1 397.8194580078125 327.697998046875 193.76901245117188
  53 1 2 381.2562255859375 327.63922119140625 233.1875457763672
  54 1 1 369.5121765136719 325.35528564453125 275.8539733886719
  55 1 2 362.20977783203125 324.20452880859375 319.07196044921875
  56 1 1 360.7235107421875 320.24993896484375 362.76751708984375
  57 1 2 358.475341796875 315.2373352050781 406.35101318359375
  58 1 1 354.99578857421875 308.93768310546875 448.31182861328125
  59 1 2 357.2103576660156 307.515869140625 490.635986328125
  60 1 1 355.9874267578125 306.5091857910156 533.1185302734375
  61 1 2 356.1623840332031 307.6248474121094 575.9599609375
  62 1 1 356.19775390625 305.5406188964844 620.0899658203125
  63 1 2 357.0450134277344 304.07672119140625 661.9788818359375
  64 1 3 356.7621154785156 302.735107421875 704.5194091796875
  65 1 2 490.0732116699219 309.80206298828125 99.14813995361328
  66 1 1 461.350830078125 290.124755859375 134.65200805664062
  67 1 2 436.3627624511719 282.2192687988281 167.5178680419922
  68 1 1 411.16119384765625 280.3160705566406 205.31787109375
  69 1 2 394.640869140625 273.9472351074219 245.09271240234375
  70 1 1 382.6803283691406 273.9095764160156 287.423828125
  71 1 2 376.0937194824219 271.4150085449219 331.66558837890625
  72 1 1 371.4212341308594 268.87322998046875 374.521240234375
  73 1 2 374.59808349609375 263.7006530761719 415.92694091796875
  74 1 1 376.38519287109375 260.8194274902344 458.34576416015625
  75 1 2 376.6986083984375 258.4905090332031 500.3299255371094
  76 1 1 376.79437255859375 257.6094665527344 542.5065307617188
  77 1 2 375.73187255859375 258.28265380859375 584.7855224609375
  78 1 1 370.8791809082031 254.4816436767578 628.9867553710938
  79 1 2 370.31365966796875 253.6632080078125 670.626953125
  80 1 3 370.007080078125 251.72613525390625 712.85302734375
  81 1 2 511.12548828125 244.97958374023438 125.50879669189453
  82 1 1 480.0128173828125 242.1708526611328 153.86045837402344
  83 1 2 451.1065979003906 235.42161560058594 185.484130859375
  84 1 1 423.3961486816406 228.978271484375 218.5936279296875
  85 1 2 402.2459411621094 224.41140747070312 256.35845947265625
  86 1 1 388.448974609375 222.71087646484375 295.7449035644531
  87 1 2 378.3108825683594 220.49261474609375 337.0803527832031
  88 1 1 375.04327392578125 216.65951538085938 380.8892822265625
  89 1 2 373.7389831542969 212.57861328125 424.5110778808594
  90 1 1 373.0070495605469 208.11607360839844 468.177734375
  91 1 2 372.3177490234375 207.4434814453125 509.489501953125
  92 1 1 369.7057800292969 206.49136352539062 550.4564819335938
  93 1 2 365.05462646484375 203.73883056640625 592.8204956054688
  94 1 1 361.2374267578125 201.9206085205078 636.2350463867188
  95 1 2 361.25439453125 201.17897033691406 677.9417724609375
  96 1 3 360.18505859375 199.97183227539062 721.076171875
  97 1 2 524.6148071289062 200.55111694335938 145.57623291015625
  98 1 1 486.8452453613281 189.4312286376953 169.20301818847656
  99 1 2 453.0453186035156 184.9244842529297 194.11257934570312
  100 1 1 421.1628723144531 176.37620544433594 227.0386962890625
  101 1 2 397.5845031738281 172.30953979492188 262.6075744628906
  102 1 1 378.437744140625 167.95751953125 304.1544494628906
  103 1 2 362.83941650390625 167.8925323486328 345.48468017578125
  104 1 1 351.015380859375 166.205322265625 390.00189208984375
  105 1 2 345.96258544921875 165.3150634765625 431.3712158203125
  106 1 1 338.568603515625 165.0836181640625 473.553466796875
  107 1 2 334.8770446777344 164.79531860351562 516.6997680664062
  108 1 1 333.28369140625 164.95449829101562 559.5
  109 1 2 332.0325927734375 161.5852508544922 602.8886108398438
  110 1 1 332.6246643066406 158.4070587158203 645.1085205078125
  111 1 2 331.0067443847656 159.50149536132812 686.28564453125
  112 1 3 328.41131591796875 157.19097900390625 729.2738037109375
  113 1 2 328.7978820800781 26.973220825195312 125.69828033447266
  114 1 1 317.580322265625 53.01218032836914 160.4474639892578
  115 1 2 304.74066162109375 71.530517578125 197.48638916015625
  116 1 1 297.680908203125 92.28623962402344 233.0592041015625
  117 1 2 293.2393493652344 110.12651062011719 271.6390686035156
  118 1 1 294.59539794921875 124.63565063476562 311.50872802734375
  119 1 2 294.5337219238281 133.55313110351562 353.19097900390625
  120 1 1 298.2633361816406 138.7612762451172 395.65264892578125
  121 1 2 295.5476379394531 138.10372924804688 439.81866455078125
  122 1 1 291.14593505859375 141.10336303710938 482.16131591796875
  123 1 2 289.10321044921875 139.032470703125 524.7255249023438
  124 1 1 287.4886779785156 139.6029052734375 567.2841796875
  125 1 2 284.40460205078125 139.66641235351562 609.879150390625
  126 1 1 284.8348388671875 137.51560974121094 653.058837890625
  127 1 2 283.0340881347656 133.7479248046875 694.9844970703125
  128 1 3 281.7096252441406 133.02456665039062 737.7686157226562
  129 1 2 304.17779541015625 -6.3525390625 156.80123901367188
  130 1 1 281.9189147949219 17.337909698486328 185.3511199951172
  131 1 2 266.6143798828125 40.568321228027344 215.9615478515625
  132 1 1 255.95098876953125 64.2320327758789 250.80807495117188
  133 1 2 250.582763671875 87.38585662841797 288.09576416015625
  134 1 1 245.703125 107.54525756835938 326.11614990234375
  135 1 2 244.80050659179688 123.99609375 365.1087646484375
  136 1 1 241.08599853515625 133.16787719726562 407.4215393066406
  137 1 2 238.53738403320312 136.34193420410156 449.8661804199219
  138 1 1 238.56478881835938 136.55569458007812 491.5462951660156
  139 1 2 238.46710205078125 131.39736938476562 533.0008544921875
  140 1 1 235.8302001953125 129.55410766601562 574.5130615234375
  141 1 2 234.79061889648438 129.96685791015625 618.96240234375
  142 1 1 231.85763549804688 130.76963806152344 660.4531860351562
  143 1 2 229.1514892578125 131.8061065673828 703.6160278320312
  144 1 3 229.13540649414062 131.28323364257812 746.32666015625
  145 1 2 258.60699462890625 -33.049560546875 183.22532653808594
  146 1 1 236.10760498046875 -6.720949172973633 207.7641143798828
  147 1 2 217.95413208007812 19.851699829101562 234.2819061279297
  148 1 1 207.83877563476562 46.340518951416016 266.8804626464844
  149 1 2 202.12547302246094 71.0140380859375 302.2716064453125
  150 1 1 194.33189392089844 90.59007263183594 339.987060546875
  151 1 2 190.26077270507812 107.89238739013672 378.90740966796875
  152 1 1 187.140380859375 125.04295349121094 417.18365478515625
  153 1 2 186.95965576171875 137.65199279785156 458.0289306640625
  154 1 1 185.4445037841797 144.52023315429688 499.4858093261719
  155 1 2 185.27830505371094 151.6924591064453 542.581298828125
  156 1 1 185.6771697998047 151.76235961914062 585.1749877929688
  157 1 2 181.5107421875 152.2611083984375 627.3939208984375
  158 1 1 179.1898956298828 151.82962036132812 670.3644409179688
  159 1 2 180.218994140625 152.3624267578125 712.308837890625
  160 1 3 180.58865356445312 152.63934326171875 755.3115844726562
  161 1 2 25.75650978088379 183.38565063476562 144.9182891845703
  162 1 1 41.816219329833984 201.80921936035156 181.97064208984375
  163 1 2 62.64134979248047 207.5900421142578 217.7646026611328
  164 1 1 84.15859985351562 207.6771240234375 255.3349609375
  165 1 2 104.580078125 205.0857391357422 292.493896484375
  166 1 1 120.65055084228516 204.43905639648438 333.9248046875
  167 1 2 131.78366088867188 206.6162872314453 375.156005859375
  168 1 1 142.18295288085938 202.12570190429688 416.3737487792969
  169 1 2 150.11441040039062 198.9337158203125 460.55023193359375
  170 1 1 154.0459442138672 194.2774200439453 505.94464111328125
  171 1 2 151.1337127685547 189.9160919189453 549.302734375
  172 1 1 152.237060546875 192.61334228515625 594.02587890625
  173 1 2 147.96620178222656 192.51019287109375 636.4216918945312
  174 1 1 146.184814453125 190.23046875 679.1503295898438
  175 1 2 146.7454833984375 191.35556030273438 721.8460083007812
  176 1 3 146.53958129882812 192.81700134277344 764.585693359375
  177 1 2 -23.59197998046875 230.62228393554688 183.67767333984375
  178 1 1 10.407139778137207 242.64425659179688 208.3401641845703
  179 1 2 39.41654968261719 247.19668579101562 241.98472595214844
  180 1 1 62.657169342041016 248.54745483398438 277.5961608886719
  181 1 2 82.21515655517578 251.71145629882812 315.1783752441406
  182 1 1 100.65408325195312 250.8857421875 353.2694091796875
  183 1 2 115.6026611328125 251.77020263671875 393.2192687988281
  184 1 1 127.42453002929688 249.36480712890625 434.58062744140625
  185 1 2 135.48016357421875 246.69384765625 476.3553466796875
  186 1 1 138.6678009033203 243.73965454101562 518.1524047851562
  187 1 2 139.9949188232422 245.18450927734375 561.2122192382812
  188 1 1 138.95826721191406 244.48890686035156 603.622314453125
  189 1 2 135.6018524169922 242.51036071777344 646.72998046875
  190 1 1 135.25914001464844 242.02410888671875 689.357177734375
  191 1 2 133.96397399902344 242.27444458007812 731.2724609375
  192 1 3 133.63905334472656 243.4935760498047 774.16796875
  193 1 2 -50.665157318115234 262.1064758300781 214.1102752685547
  194 1 1 -15.494389533996582 279.82452392578125 233.70602416992188
  195 1 2 18.32257080078125 290.9548034667969 259.6460266113281
  196 1 1 45.698299407958984 295.4997863769531 295.52728271484375
  197 1 2 67.62969970703125 299.1129150390625 331.2686767578125
  198 1 1 89.69627380371094 300.00213623046875 367.1470947265625
  199 1 2 109.68573760986328 300.9635009765625 406.90240478515625
  200 1 1 121.8748779296875 300.27874755859375 447.62060546875
  201 1 2 130.17135620117188 298.8396911621094 487.8841857910156
  202 1 1 139.42459106445312 297.21075439453125 528.8218383789062
  203 1 2 143.3228302001953 296.13848876953125 571.2554321289062
  204 1 1 142.55885314941406 295.57598876953125 614.8035278320312
  205 1 2 141.2130126953125 294.2831726074219 656.5752563476562
  206 1 1 143.27149963378906 294.2640380859375 699.148193359375
  207 1 2 143.3356170654297 296.1724548339844 741.1893310546875
  208 1 3 143.7261962890625 295.1848449707031 783.92578125
  209 1 2 -71.52874755859375 300.15692138671875 238.75894165039062
  210 1 1 -33.629520416259766 325.75799560546875 255.45184326171875
  211 1 2 2.3262999057769775 336.8493957519531 280.1142578125
  212 1 1 34.51887130737305 345.5744934082031 306.1311950683594
  213 1 2 66.89227294921875 349.4289855957031 340.5126953125
  214 1 1 92.26788330078125 352.72991943359375 377.37738037109375
  215 1 2 114.47000122070312 352.3487548828125 415.15008544921875
  216 1 1 132.62730407714844 352.30609130859375 456.94482421875
  217 1 2 143.01292419433594 348.96429443359375 496.6528625488281
  218 1 1 153.73858642578125 348.646240234375 540.347412109375
  219 1 2 162.10147094726562 344.0457763671875 581.4541015625
  220 1 1 169.40951538085938 340.12823486328125 625.0349731445312
  221 1 2 172.91177368164062 339.1955871582031 666.5943603515625
  222 1 1 173.611572265625 337.7700500488281 709.0689697265625
  223 1 2 174.31011962890625 337.8826904296875 750.6316528320312
  224 1 3 175.59654235839844 337.02496337890625 793.6365966796875
  225 1 3 251.75001525878906 247.626953125 734.5694580078125

Bonds

  1 1 1 2
  2 1 3 4
  3 1 5 6
  4 1 7 8
  5 1 9 10
  6 1 11 12
  7 1 13 14
  8 1 15 16
  9 1 17 18
  10 1 19 20
  11 1 21 22
  12 1 23 24
  13 1 25 26
  14 1 27 28
  15 1 29 30
  16 1 31 32
  17 1 33 34
  18 1 35 36
  19 1 37 38
  20 1 39 40
  21 1 41 42
  22 1 43 44
  23 1 45 46
  24 1 47 48
  25 1 49 50
  26 1 51 52
  27 1 53 54
  28 1 55 56
  29 1 57 58
  30 1 59 60
  31 1 61 62
  32 1 63 64
  33 1 65 66
  34 1 67 68
  35 1 69 70
  36 1 71 72
  37 1 73 74
  38 1 75 76
  39 1 77 78
  40 1 79 80
  41 1 81 82
  42 1 83 84
  43 1 85 86
  44 1 87 88
  45 1 89 90
  46 1 91 92
  47 1 93 94
  48 1 95 96
  49 1 97 98
  50 1 99 100
  51 1 101 102
  52 1 103 104
  53 1 105 106
  54 1 107 108
  55 1 109 110
  56 1 111 112
  57 1 113 114
  58 1 115 116
  59 1 117 118
  60 1 119 120
  61 1 121 122
  62 1 123 124
  63 1 125 126
  64 1 127 128
  65 1 129 130
  66 1 131 132
  67 1 133 134
  68 1 135 136
  69 1 137 138
  70 1 139 140
  71 1 141 142
  72 1 143 144
  73 1 145 146
  74 1 147 148
  75 1 149 150
  76 1 151 152
  77 1 153 154
  78 1 155 156
  79 1 157 158
  80 1 159 160
  81 1 161 162
  82 1 163 164
  83 1 165 166
  84 1 167 168
  85 1 169 170
  86 1 171 172
  87 1 173 174
  88 1 175 176
  89 1 177 178
  90 1 179 180
  91 1 181 182
  92 1 183 184
  93 1 185 186
  94 1 187 188
  95 1 189 190
  96 1 191 192
  97 1 193 194
  98 1 195 196
  99 1 197 198
  100 1 199 200
  101 1 201 202
  102 1 203 204
  103 1 205 206
  104 1 207 208
  105 1 209 210
  106 1 211 212
  107 1 213 214
  108 1 215 216
  109 1 217 218
  110 1 219 220
  111 1 221 222
  112 1 223 224
  113 2 2 3
  114 2 4 5
  115 2 6 7
  116 2 8 9
  117 2 10 11
  118 2 12 13
  119 2 14 15
  120 2 18 19
  121 2 20 21
  122 2 22 23
  123 2 24 25
  124 2 26 27
  125 2 28 29
  126 2 30 31
  127 2 34 35
  128 2 36 37
  129 2 38 39
  130 2 40 41
  131 2 42 43
  132 2 44 45
  133 2 46 47
  134 2 50 51
  135 2 52 53
  136 2 54 55
  137 2 56 57
  138 2 58 59
  139 2 60 61
  140 2 62 63
  141 2 66 67
  142 2 68 69
  143 2 70 71
  144 2 72 73
  145 2 74 75
  146 2 76 77
  147 2 78 79
  148 2 82 83
  149 2 84 85
  150 2 86 87
  151 2 88 89
  152 2 90 91
  153 2 92 93
  154 2 94 95
  155 2 98 99
  156 2 100 101
  157 2 102 103
  158 2 104 105
  159 2 106 107
  160 2 108 109
  161 2 110 111
  162 2 114 115
  163 2 116 117
  164 2 118 119
  165 2 120 121
  166 2 122 123
  167 2 124 125
  168 2 126 127
  169 2 130 131
  170 2 132 133
  171 2 134 135
  172 2 136 137
  173 2 138 139
  174 2 140 141
  175 2 142 143
  176 2 146 147
  177 2 148 149
  178 2 150 151
  179 2 152 153
  180 2 154 155
  181 2 156 157
  182 2 158 159
  183 2 162 163
  184 2 164 165
  185 2 166 167
  186 2 168 169
  187 2 170 171
  188 2 172 173
  189 2 174 175
  190 2 178 179
  191 2 180 181
  192 2 182 183
  193 2 184 185
  194 2 186 187
  195 2 188 189
  196 2 190 191
  197 2 194 195
  198 2 196 197
  199 2 198 199
  200 2 200 201
  201 2 202 203
  202 2 204 205
  203 2 206 207
  204 2 210 211
  205 2 212 213
  206 2 214 215
  207 2 216 217
  208 2 218 219
  209 2 220 221
  210 2 222 223
  211 3 1 17
  212 3 3 19
  213 3 5 21
  214 3 7 23
  215 3 9 25
  216 3 11 27
  217 3 13 29
  218 3 15 31
  219 3 17 33
  220 3 19 35
  221 3 21 37
  222 3 23 39
  223 3 25 41
  224 3 27 43
  225 3 29 45
  226 3 31 47
  227 3 33 49
  228 3 35 51
  229 3 37 53
  230 3 39 55
  231 3 41 57
  232 3 43 59
  233 3 45 61
  234 3 47 63
  235 3 49 65
  236 3 51 67
  237 3 53 69
  238 3 55 71
  239 3 57 73
  240 3 59 75
  241 3 61 77
  242 3 63 79
  243 3 65 81
  244 3 67 83
  245 3 69 85
  246 3 71 87
  247 3 73 89
  248 3 75 91
  249 3 77 93
  250 3 79 95
  251 3 81 97
  252 3 83 99
  253 3 85 101
  254 3 87 103
  255 3 89 105
  256 3 91 107
  257 3 93 109
  258 3 95 111
  259 3 97 113
  260 3 99 115
  261 3 101 117
  262 3 103 119
  263 3 105 121
  264 3 107 123
  265 3 109 125
  266 3 111 127
  267 3 113 129
  268 3 115 131
  269 3 117 133
  270 3 119 135
  271 3 121 137
  272 3 123 139
  273 3 125 141
  274 3 127 143
  275 3 129 145
  276 3 131 147
  277 3 133 149
  278 3 135 151
  279 3 137 153
  280 3 139 155
  281 3 141 157
  282 3 143 159
  283 3 145 161
  284 3 147 163
  285 3 149 165
  286 3 151 167
  287 3 153 169
  288 3 155 171
  289 3 157 173
  290 3 159 175
  291 3 161 177
  292 3 163 179
  293 3 165 181
  294 3 167 183
  295 3 169 185
  296 3 171 187
  297 3 173 189
  298 3 175 191
  299 3 177 193
  300 3 179 195
  301 3 181 197
  302 3 183 199
  303 3 185 201
  304 3 187 203
  305 3 189 205
  306 3 191 207
  307 3 193 209
  308 3 195 211
  309 3 197 213
  310 3 199 215
  311 3 201 217
  312 3 203 219
  313 3 205 221
  314 3 207 223
  315 4 2 18
  316 4 4 20
  317 4 6 22
  318 4 8 24
  319 4 10 26
  320 4 12 28
  321 4 14 30
  322 4 16 32
  323 4 18 34
  324 4 20 36
  325 4 22 38
  326 4 24 40
  327 4 26 42
  328 4 28 44
  329 4 30 46
  330 4 32 48
  331 4 34 50
  332 4 36 52
  333 4 38 54
  334 4 40 56
  335 4 42 58
  336 4 44 60
  337 4 46 62
  338 4 48 64
  339 4 50 66
  340 4 52 68
  341 4 54 70
  342 4 56 72
  343 4 58 74
  344 4 60 76
  345 4 62 78
  346 4 64 80
  347 4 66 82
  348 4 68 84
  349 4 70 86
  350 4 72 88
  351 4 74 90
  352 4 76 92
  353 4 78 94
  354 4 80 96
  355 4 82 98
  356 4 84 100
  357 4 86 102
  358 4 88 104
  359 4 90 106
  360 4 92 108
  361 4 94 110
  362 4 96 112
  363 4 98 114
  364 4 100 116
  365 4 102 118
  366 4 104 120
  367 4 106 122
  368 4 108 124
  369 4 110 126
  370 4 112 128
  371 4 114 130
  372 4 116 132
  373 4 118 134
  374 4 120 136
  375 4 122 138
  376 4 124 140
  377 4 126 142
  378 4 128 144
  379 4 130 146
  380 4 132 148
  381 4 134 150
  382 4 136 152
  383 4 138 154
  384 4 140 156
  385 4 142 158
  386 4 144 160
  387 4 146 162
  388 4 148 164
  389 4 150 166
  390 4 152 168
  391 4 154 170
  392 4 156 172
  393 4 158 174
  394 4 160 176
  395 4 162 178
  396 4 164 180
  397 4 166 182
  398 4 168 184
  399 4 170 186
  400 4 172 188
  401 4 174 190
  402 4 176 192
  403 4 178 194
  404 4 180 196
  405 4 182 198
  406 4 184 200
  407 4 186 202
  408 4 188 204
  409 4 190 206
  410 4 192 208
  411 4 194 210
  412 4 196 212
  413 4 198 214
  414 4 200 216
  415 4 202 218
  416 4 204 220
  417 4 206 222
  418 4 208 224
  419 5 4 209
  420 5 5 210
  421 5 6 211
  422 5 7 212
  423 5 8 213
  424 5 9 214
  425 5 10 215
  426 5 11 216
  427 5 12 217
  428 5 13 218
  429 5 14 219
  430 5 15 220
  431 5 16 221
  432 6 1 18
  433 6 2 19
  434 6 3 20
  435 6 4 21
  436 6 5 22
  437 6 6 23
  438 6 7 24
  439 6 8 25
  440 6 9 26
  441 6 10 27
  442 6 11 28
  443 6 12 29
  444 6 13 30
  445 6 14 31
  446 6 15 32
  447 6 17 34
  448 6 18 35
  449 6 19 36
  450 6 20 37
  451 6 21 38
  452 6 22 39
  453 6 23 40
  454 6 24 41
  455 6 25 42
  456 6 26 43
  457 6 27 44
  458 6 28 45
  459 6 29 46
  460 6 30 47
  461 6 31 48
  462 6 33 50
  463 6 34 51
  464 6 35 52
  465 6 36 53
  466 6 37 54
  467 6 38 55
  468 6 39 56
  469 6 40 57
  470 6 41 58
  471 6 42 59
  472 6 43 60
  473 6 44 61
  474 6 45 62
  475 6 46 63
  476 6 47 64
  477 6 49 66
  478 6 50 67
  479 6 51 68
  480 6 52 69
  481 6 53 70
  482 6 54 71
  483 6 55 72
  484 6 56 73
  485 6 57 74
  486 6 58 75
  487 6 59 76
  488 6 60 77
  489 6 61 78
  490 6 62 79
  491 6 63 80
  492 6 65 82
  493 6 66 83
  494 6 67 84
  495 6 68 85
  496 6 69 86
  497 6 70 87
  498 6 71 88
  499 6 72 89
  500 6 73 90
  501 6 74 91
  502 6 75 92
  503 6 76 93
  504 6 77 94
  505 6 78 95
  506 6 79 96
  507 6 81 98
  508 6 82 99
  509 6 83 100
  510 6 84 101
  511 6 85 102
  512 6 86 103
  513 6 87 104
  514 6 88 105
  515 6 89 106
  516 6 90 107
  517 6 91 108
  518 6 92 109
  519 6 93 110
  520 6 94 111
  521 6 95 112
  522 6 97 114
  523 6 98 115
  524 6 99 116
  525 6 100 117
  526 6 101 118
  527 6 102 119
  528 6 103 120
  529 6 104 121
  530 6 105 122
  531 6 106 123
  532 6 107 124
  533 6 108 125
  534 6 109 126
  535 6 110 127
  536 6 111 128
  537 6 113 130
  538 6 114 131
  539 6 115 132
  540 6 116 133
  541 6 117 134
  542 6 118 135
  543 6 119 136
  544 6 120 137
  545 6 121 138
  546 6 122 139
  547 6 123 140
  548 6 124 141
  549 6 125 142
  550 6 126 143
  551 6 127 144
  552 6 129 146
  553 6 130 147
  554 6 131 148
  555 6 132 149
  556 6 133 150
  557 6 134 151
  558 6 135 152
  559 6 136 153
  560 6 137 154
  561 6 138 155
  562 6 139 156
  563 6 140 157
  564 6 141 158
  565 6 142 159
  566 6 143 160
  567 6 145 162
  568 6 146 163
  569 6 147 164
  570 6 148 165
  571 6 149 166
  572 6 150 167
  573 6 151 168
  574 6 152 169
  575 6 153 170
  576 6 154 171
  577 6 155 172
  578 6 156 173
  579 6 157 174
  580 6 158 175
  581 6 159 176
  582 6 161 178
  583 6 162 179
  584 6 163 180
  585 6 164 181
  586 6 165 182
  587 6 166 183
  588 6 167 184
  589 6 168 185
  590 6 169 186
  591 6 170 187
  592 6 171 188
  593 6 172 189
  594 6 173 190
  595 6 174 191
  596 6 175 192
  597 6 177 194
  598 6 178 195
  599 6 179 196
  600 6 180 197
  601 6 181 198
  602 6 182 199
  603 6 183 200
  604 6 184 201
  605 6 185 202
  606 6 186 203
  607 6 187 204
  608 6 188 205
  609 6 189 206
  610 6 190 207
  611 6 191 208
  612 6 193 210
  613 6 194 211
  614 6 195 212
  615 6 196 213
  616 6 197 214
  617 6 198 215
  618 6 199 216
  619 6 200 217
  620 6 201 218
  621 6 202 219
  622 6 203 220
  623 6 204 221
  624 6 205 222
  625 6 206 223
  626 6 207 224
  627 6 209 5
  628 6 210 6
  629 6 211 7
  630 6 212 8
  631 6 213 9
  632 6 214 10
  633 6 215 11
  634 6 216 12
  635 6 217 13
  636 6 218 14
  637 6 219 15
  638 6 220 16
  639 7 17 2
  640 7 18 3
  641 7 19 4
  642 7 20 5
  643 7 21 6
  644 7 22 7
  645 7 23 8
  646 7 24 9
  647 7 25 10
  648 7 26 11
  649 7 27 12
  650 7 28 13
  651 7 29 14
  652 7 30 15
  653 7 31 16
  654 7 33 18
  655 7 34 19
  656 7 35 20
  657 7 36 21
  658 7 37 22
  659 7 38 23
  660 7 39 24
  661 7 40 25
  662 7 41 26
  663 7 42 27
  664 7 43 28
  665 7 44 29
  666 7 45 30
  667 7 46 31
  668 7 47 32
  669 7 49 34
  670 7 50 35
  671 7 51 36
  672 7 52 37
  673 7 53 38
  674 7 54 39
  675 7 55 40
  676 7 56 41
  677 7 57 42
  678 7 58 43
  679 7 59 44
  680 7 60 45
  681 7 61 46
  682 7 62 47
  683 7 63 48
  684 7 65 50
  685 7 66 51
  686 7 67 52
  687 7 68 53
  688 7 69 54
  689 7 70 55
  690 7 71 56
  691 7 72 57
  692 7 73 58
  693 7 74 59
  694 7 75 60
  695 7 76 61
  696 7 77 62
  697 7 78 63
  698 7 79 64
  699 7 81 66
  700 7 82 67
  701 7 83 68
  702 7 84 69
  703 7 85 70
  704 7 86 71
  705 7 87 72
  706 7 88 73
  707 7 89 74
  708 7 90 75
  709 7 91 76
  710 7 92 77
  711 7 93 78
  712 7 94 79
  713 7 95 80
  714 7 97 82
  715 7 98 83
  716 7 99 84
  717 7 100 85
  718 7 101 86
  719 7 102 87
  720 7 103 88
  721 7 104 89
  722 7 105 90
  723 7 106 91
  724 7 107 92
  725 7 108 93
  726 7 109 94
  727 7 110 95
  728 7 111 96
  729 7 113 98
  730 7 114 99
  731 7 115 100
  732 7 116 101
  733 7 117 102
  734 7 118 103
  735 7 119 104
  736 7 120 105
  737 7 121 106
  738 7 122 107
  739 7 123 108
  740 7 124 109
  741 7 125 110
  742 7 126 111
  743 7 127 112
  744 7 129 114
  745 7 130 115
  746 7 131 116
  747 7 132 117
  748 7 133 118
  749 7 134 119
  750 7 135 120
  751 7 136 121
  752 7 137 122
  753 7 138 123
  754 7 139 124
  755 7 140 125
  756 7 141 126
  757 7 142 127
  758 7 143 128
  759 7 145 130
  760 7 146 131
  761 7 147 132
  762 7 148 133
  763 7 149 134
  764 7 150 135
  765 7 151 136
  766 7 152 137
  767 7 153 138
  768 7 154 139
  769 7 155 140
  770 7 156 141
  771 7 157 142
  772 7 158 143
  773 7 159 144
  774 7 161 146
  775 7 162 147
  776 7 163 148
  777 7 164 149
  778 7 165 150
  779 7 166 151
  780 7 167 152
  781 7 168 153
  782 7 169 154
  783 7 170 155
  784 7 171 156
  785 7 172 157
  786 7 173 158
  787 7 174 159
  788 7 175 160
  789 7 177 162
  790 7 178 163
  791 7 179 164
  792 7 180 165
  793 7 181 166
  794 7 182 167
  795 7 183 168
  796 7 184 169
  797 7 185 170
  798 7 186 171
  799 7 187 172
  800 7 188 173
  801 7 189 174
  802 7 190 175
  803 7 191 176
  804 7 193 178
  805 7 194 179
  806 7 195 180
  807 7 196 181
  808 7 197 182
  809 7 198 183
  810 7 199 184
  811 7 200 185
  812 7 201 186
  813 7 202 187
  814 7 203 188
  815 7 204 189
  816 7 205 190
  817 7 206 191
  818 7 207 192
  819 7 209 194
  820 7 210 195
  821 7 211 196
  822 7 212 197
  823 7 213 198
  824 7 214 199
  825 7 215 200
  826 7 216 201
  827 7 217 202
  828 7 218 203
  829 7 219 204
  830 7 220 205
  831 7 221 206
  832 7 222 207
  833 7 223 208
  834 7 3 209
  835 7 4 210
  836 7 5 211
  837 7 6 212
  838 7 7 213
  839 7 8 214
  840 7 9 215
  841 7 10 216
  842 7 11 217
  843 7 12 218
  844 7 13 219
  845 7 14 220
  846 7 15 221
  847 7 16 222

Angles

  1 1 2 3 4
  2 1 4 5 6
  3 1 6 7 8
  4 1 8 9 10
  5 1 10 11 12
  6 1 12 13 14
  7 1 14 15 16
  8 1 18 19 20
  9 1 20 21 22
  10 1 22 23 24
  11 1 24 25 26
  12 1 26 27 28
  13 1 28 29 30
  14 1 30 31 32
  15 1 34 35 36
  16 1 36 37 38
  17 1 38 39 40
  18 1 40 41 42
  19 1 42 43 44
  20 1 44 45 46
  21 1 46 47 48
  22 1 50 51 52
  23 1 52 53 54
  24 1 54 55 56
  25 1 56 57 58
  26 1 58 59 60
  27 1 60 61 62
  28 1 62 63 64
  29 1 66 67 68
  30 1 68 69 70
  31 1 70 71 72
  32 1 72 73 74
  33 1 74 75 76
  34 1 76 77 78
  35 1 78 79 80
  36 1 82 83 84
  37 1 84 85 86
  38 1 86 87 88
  39 1 88 89 90
  40 1 90 91 92
  41 1 92 93 94
  42 1 94 95 96
  43 1 98 99 100
  44 1 100 101 102
  45 1 102 103 104
  46 1 104 105 106
  47 1 106 107 108
  48 1 108 109 110
  49 1 110 111 112
  50 1 114 115 116
  51 1 116 117 118
  52 1 118 119 120
  53 1 120 121 122
  54 1 122 123 124
  55 1 124 125 126
  56 1 126 127 128
  57 1 130 131 132
  58 1 132 133 134
  59 1 134 135 136
  60 1 136 137 138
  61 1 138 139 140
  62 1 140 141 142
  63 1 142 143 144
  64 1 146 147 148
  65 1 148 149 150
  66 1 150 151 152
  67 1 152 153 154
  68 1 154 155 156
  69 1 156 157 158
  70 1 158 159 160
  71 1 162 163 164
  72 1 164 165 166
  73 1 166 167 168
  74 1 168 169 170
  75 1 170 171 172
  76 1 172 173 174
  77 1 174 175 176
  78 1 178 179 180
  79 1 180 181 182
  80 1 182 183 184
  81 1 184 185 186
  82 1 186 187 188
  83 1 188 189 190
  84 1 190 191 192
  85 1 194 195 196
  86 1 196 197 198
  87 1 198 199 200
  88 1 200 201 202
  89 1 202 203 204
  90 1 204 205 206
  91 1 206 207 208
  92 1 210 211 212
  93 1 212 213 214
  94 1 214 215 216
  95 1 216 217 218
  96 1 218 219 220
  97 1 220 221 222
  98 1 222 223 224
  99 2 1 2 3
  100 2 3 4 5
  101 2 5 6 7
  102 2 7 8 9
  103 2 9 10 11
  104 2 11 12 13
  105 2 13 14 15
  106 2 17 18 19
  107 2 19 20 21
  108 2 21 22 23
  109 2 23 24 25
  110 2 25 26 27
  111 2 27 28 29
  112 2 29 30 31
  113 2 33 34 35
  114 2 35 36 37
  115 2 37 38 39
  116 2 39 40 41
  117 2 41 42 43
  118 2 43 44 45
  119 2 45 46 47
  120 2 49 50 51
  121 2 51 52 53
  122 2 53 54 55
  123 2 55 56 57
  124 2 57 58 59
  125 2 59 60 61
  126 2 61 62 63
  127 2 65 66 67
  128 2 67 68 69
  129 2 69 70 71
  130 2 71 72 73
  131 2 73 74 75
  132 2 75 76 77
  133 2 77 78 79
  134 2 81 82 83
  135 2 83 84 85
  136 2 85 86 87
  137 2 87 88 89
  138 2 89 90 91
  139 2 91 92 93
  140 2 93 94 95
  141 2 97 98 99
  142 2 99 100 101
  143 2 101 102 103