LAMMPS Description

225 atoms
847 bonds
196 angles
378 dihedrals

3 atom types
7 bond types
2 angle types
2 dihedral types

-5000.0 5000.0 xlo xhi
-5000.0 5000.0 ylo yhi
-5000.0 5000.0 zlo zhi

Masses

  1 1.0
  2 1.0
  3 1.0

Bond Coeffs

  1 harmonic 0.61 43.8
  2 harmonic 1.09 42.7
  3 morse 2.28 0.19 53.5
  4 morse 2.52 0.21 55.1
  5 morse 1.71 0.46 56.6
  6 morse 1.72 0.12 76.5
  7 morse 2.46 0.18 60.9

Angle Coeffs

  1 90.4 171.3
  2 86.4 170.8

Dihedral Coeffs

  1 harmonic 1.66 -1 1
  2 quadratic 2.46 175.0

Atoms

  1 1 2 177.68063354492188 446.09136962890625 46.447898864746094
  2 1 1 188.8084716796875 425.6228942871094 83.83748626708984
  3 1 2 194.54617309570312 409.56402587890625 123.1253662109375
  4 1 1 191.14324951171875 392.101806640625 161.59039306640625
  5 1 2 192.55316162109375 383.3541564941406 203.4466552734375
  6 1 1 192.69540405273438 373.792236328125 245.41705322265625
  7 1 2 192.74069213867188 370.5150146484375 287.6671447753906
  8 1 1 193.8575439453125 368.5465087890625 330.9534912109375
  9 1 2 196.19509887695312 368.71051025390625 372.3794250488281
  10 1 1 196.4925537109375 370.7773132324219 417.0077209472656
  11 1 2 201.96458435058594 372.8099365234375 459.4852294921875
  12 1 1 206.93539428710938 369.6439208984375 500.97015380859375
  13 1 2 211.331298828125 365.8525390625 541.5106811523438
  14 1 1 213.16688537597656 363.77978515625 586.0322265625
  15 1 2 215.667236328125 363.5763244628906 627.06982421875
  16 1 3 218.00209045410156 360.8148193359375 670.713623046875
  17 1 2 211.96978759765625 475.9817199707031 70.69676208496094
  18 1 1 227.26304626464844 454.7864074707031 107.21888732910156
  19 1 2 235.59033203125 431.8022155761719 141.69189453125
  20 1 1 239.25845336914062 410.91021728515625 177.0650634765625
  21 1 2 242.6957550048828 393.79705810546875 215.92584228515625
  22 1 1 244.8731231689453 379.50457763671875 255.3597869873047
  23 1 2 246.26980590820312 371.9742126464844 297.2917175292969
  24 1 1 247.72789001464844 366.9959716796875 339.0950927734375
  25 1 2 247.43971252441406 366.3815002441406 381.29736328125
  26 1 1 251.18829345703125 368.1900634765625 424.2976379394531
  27 1 2 257.5704650878906 369.53167724609375 465.845703125
  28 1 1 260.0466613769531 370.0967712402344 507.8408508300781
  29 1 2 263.9252624511719 369.1475830078125 549.5458374023438
  30 1 1 265.64495849609375 367.4203186035156 592.8471069335938
  31 1 2 268.5570983886719 365.02264404296875 634.314697265625
  32 1 3 271.04266357421875 363.35400390625 677.1408081054688
  33 1 2 270.626220703125 478.7086181640625 79.92906951904297
  34 1 1 286.3222351074219 455.1457214355469 112.77955627441406
  35 1 2 291.3294372558594 432.2955322265625 147.4192657470703
  36 1 1 295.5646057128906 409.2445373535156 184.3049774169922
  37 1 2 294.40447998046875 387.1236572265625 219.31402587890625
  38 1 1 297.0572814941406 371.51617431640625 261.4471435546875
  39 1 2 296.4717102050781 361.8543701171875 302.65289306640625
  40 1 1 296.8273010253906 355.3301696777344 344.7276306152344
  41 1 2 297.15728759765625 351.6120910644531 387.07525634765625
  42 1 1 300.5688781738281 347.5555114746094 429.99896240234375
  43 1 2 304.25177001953125 347.02606201171875 471.8719482421875
  44 1 1 306.8375549316406 345.915283203125 514.5806274414062
  45 1 2 310.8491516113281 345.43560791015625 556.7706298828125
  46 1 1 314.16827392578125 344.16119384765625 599.3584594726562
  47 1 2 318.6994934082031 343.2000732421875 641.2080078125
  48 1 3 320.45172119140625 343.1075439453125 683.54541015625
  49 1 2 435.7598571777344 348.83172607421875 71.41979217529297
  50 1 1 406.2337646484375 337.0129699707031 103.05372619628906
  51 1 2 380.6546630859375 328.36944580078125 136.0841827392578
  52 1 1 361.2606506347656 321.9656982421875 177.55377197265625
  53 1 2 349.88458251953125 321.5298767089844 220.61598205566406
  54 1 1 341.69830322265625 317.6498107910156 264.3774108886719
  55 1 2 340.3512878417969 317.4037170410156 306.3441162109375
  56 1 1 340.0919189453125 315.4653015136719 350.30230712890625
  57 1 2 341.64599609375 314.2400207519531 393.2818298339844
  58 1 1 341.22149658203125 312.3188171386719 436.35247802734375
  59 1 2 341.37054443359375 310.2518005371094 478.6722412109375
  60 1 1 343.1034851074219 308.1121520996094 523.2821655273438
  61 1 2 348.70562744140625 306.8041076660156 564.397216796875
  62 1 1 352.576416015625 305.305419921875 606.0408935546875
  63 1 2 354.9276123046875 304.1912841796875 647.2057495117188
  64 1 3 355.85064697265625 303.4273986816406 690.3634033203125
  65 1 2 464.58966064453125 318.3126220703125 98.52557373046875
  66 1 1 436.4310302734375 298.56793212890625 124.71630859375
  67 1 2 409.97857666015625 284.9114685058594 155.16644287109375
  68 1 1 388.1886291503906 277.9610900878906 192.6516876220703
  69 1 2 371.5609130859375 271.3438415527344 231.43765258789062
  70 1 1 359.3759460449219 267.8998718261719 272.5616760253906
  71 1 2 354.46295166015625 266.7538757324219 316.0883483886719
  72 1 1 353.1153564453125 264.463134765625 357.91522216796875
  73 1 2 355.5709228515625 260.75811767578125 399.5431823730469
  74 1 1 359.9809265136719 260.270263671875 441.4403076171875
  75 1 2 364.42376708984375 264.1029968261719 483.8550109863281
  76 1 1 365.2706298828125 262.048095703125 527.037353515625
  77 1 2 369.0913391113281 259.5716247558594 569.0960693359375
  78 1 1 370.94244384765625 254.90386962890625 612.4978637695312
  79 1 2 369.7765808105469 253.0028533935547 655.5101318359375
  80 1 3 370.16094970703125 252.3607635498047 697.982177734375
  81 1 2 492.988037109375 265.0622863769531 113.65592956542969
  82 1 1 460.394287109375 252.47003173828125 140.69168090820312
  83 1 2 432.896484375 242.42996215820312 172.3198699951172
  84 1 1 409.9021911621094 230.41873168945312 207.16851806640625
  85 1 2 388.4960632324219 222.86416625976562 242.62835693359375
  86 1 1 370.38018798828125 217.2705841064453 281.7927551269531
  87 1 2 356.9400634765625 215.98095703125 322.26739501953125
  88 1 1 350.44549560546875 212.3857879638672 366.33026123046875
  89 1 2 349.2940673828125 209.70001220703125 409.18328857421875
  90 1 1 350.7931823730469 209.73878479003906 453.1101989746094
  91 1 2 351.28863525390625 208.0979766845703 494.53997802734375
  92 1 1 354.9788818359375 206.4300537109375 536.65771484375
  93 1 2 358.117431640625 203.98239135742188 578.513916015625
  94 1 1 362.08203125 201.47357177734375 621.3495483398438
  95 1 2 361.6348571777344 200.80783081054688 664.3553466796875
  96 1 3 361.53173828125 200.06849670410156 706.5155639648438
  97 1 2 437.0599670410156 88.283447265625 118.75763702392578
  98 1 1 405.9811706542969 95.71764373779297 148.78506469726562
  99 1 2 380.51336669921875 106.1001205444336 180.68527221679688
  100 1 1 359.76092529296875 118.10082244873047 215.3657684326172
  101 1 2 343.52423095703125 132.17520141601562 251.9398193359375
  102 1 1 333.1728515625 147.2263641357422 290.9449462890625
  103 1 2 324.680908203125 160.67381286621094 330.51129150390625
  104 1 1 322.42022705078125 167.03567504882812 375.09381103515625
  105 1 2 319.71697998046875 167.31625366210938 417.8052978515625
  106 1 1 320.5479736328125 166.46409606933594 460.2496643066406
  107 1 2 322.1110534667969 166.45077514648438 502.66131591796875
  108 1 1 322.45684814453125 163.87481689453125 545.4902954101562
  109 1 2 326.60247802734375 163.5848388671875 586.8067016601562
  110 1 1 327.06060791015625 159.8459930419922 630.7028198242188
  111 1 2 328.7345886230469 157.6840362548828 672.5863647460938
  112 1 3 330.79302978515625 157.35418701171875 715.983642578125
  113 1 2 433.00634765625 40.762081146240234 158.44192504882812
  114 1 1 393.54180908203125 49.04912185668945 176.00892639160156
  115 1 2 361.37762451171875 58.5659294128418 204.2384033203125
  116 1 1 334.8796081542969 73.38400268554688 236.17474365234375
  117 1 2 315.41680908203125 91.69154357910156 269.5617980957031
  118 1 1 300.3864440917969 108.30635833740234 307.3516845703125
  119 1 2 289.4024658203125 122.18953704833984 344.39569091796875
  120 1 1 283.7911376953125 132.32351684570312 386.9732360839844
  121 1 2 279.81781005859375 135.92440795898438 429.4738464355469
  122 1 1 278.65875244140625 134.93426513671875 472.85943603515625
  123 1 2 277.3669738769531 134.84986877441406 514.7371215820312
  124 1 1 279.34197998046875 134.88824462890625 556.8414916992188
  125 1 2 281.21929931640625 132.32106018066406 598.987548828125
  126 1 1 281.02557373046875 132.31533813476562 641.3253173828125
  127 1 2 283.2461242675781 131.61976623535156 683.4375610351562
  128 1 3 284.2640380859375 132.34637451171875 726.5463256835938
  129 1 2 394.7353820800781 -4.220397472381592 184.25277709960938
  130 1 1 357.8802185058594 6.576230049133301 203.42202758789062
  131 1 2 324.208251953125 19.34528923034668 226.87680053710938
  132 1 1 296.0713806152344 36.10763931274414 253.73033142089844
  133 1 2 275.02044677734375 56.317630767822266 284.8745422363281
  134 1 1 258.103271484375 75.13723754882812 321.3388366699219
  135 1 2 246.19586181640625 97.50479125976562 355.71435546875
  136 1 1 233.13336181640625 112.68657684326172 395.96783447265625
  137 1 2 227.31231689453125 121.11248016357422 439.0255432128906
  138 1 1 227.45643615722656 123.49788665771484 481.21142578125
  139 1 2 228.00762939453125 125.2864990234375 523.6257934570312
  140 1 1 227.37384033203125 125.27919006347656 567.6718139648438
  141 1 2 227.28506469726562 127.00189208984375 609.30224609375
  142 1 1 228.6087646484375 127.91047668457031 652.2344970703125
  143 1 2 230.53504943847656 128.84129333496094 694.7094116210938
  144 1 3 231.7675018310547 130.1163787841797 737.6092529296875
  145 1 2 92.37787628173828 100.29277801513672 123.42118835449219
  146 1 1 109.86141204833984 114.58727264404297 158.13973999023438
  147 1 2 128.6334991455078 125.14008331298828 198.53903198242188
  148 1 1 141.9982452392578 130.47930908203125 238.50950622558594
  149 1 2 151.930419921875 136.0257110595703 279.9881591796875
  150 1 1 160.04107666015625 138.03927612304688 322.62078857421875
  151 1 2 168.62933349609375 141.06040954589844 365.363525390625
  152 1 1 172.40048217773438 142.79881286621094 408.2632141113281
  153 1 2 174.56436157226562 143.0245361328125 450.513916015625
  154 1 1 175.7437744140625 143.5209197998047 493.32647705078125
  155 1 2 175.95401000976562 141.54994201660156 534.3854370117188
  156 1 1 175.61973571777344 144.94764709472656 578.5974731445312
  157 1 2 179.83665466308594 146.6026611328125 620.787841796875
  158 1 1 179.92552185058594 149.332275390625 664.54443359375
  159 1 2 181.47964477539062 150.32269287109375 705.6726684570312
  160 1 3 183.6277618408203 151.28794860839844 748.716796875
  161 1 2 42.55799865722656 111.55864715576172 155.52389526367188
  162 1 1 61.91521072387695 133.86459350585938 185.72970581054688
  163 1 2 81.5760726928711 152.55020141601562 218.669189453125
  164 1 1 99.50614929199219 164.3550262451172 256.7527770996094
  165 1 2 111.82357025146484 174.30665588378906 295.7062683105469
  166 1 1 123.34445190429688 180.00363159179688 336.57611083984375
  167 1 2 132.7078094482422 181.87335205078125 377.8808288574219
  168 1 1 140.65121459960938 185.30030822753906 419.66375732421875
  169 1 2 144.14755249023438 187.96261596679688 461.31500244140625
  170 1 1 145.18881225585938 186.43234252929688 504.29931640625
  171 1 2 143.86056518554688 184.86529541015625 545.6697387695312
  172 1 1 142.21737670898438 186.63623046875 589.2346801757812
  173 1 2 143.7034149169922 188.46072387695312 630.7369995117188
  174 1 1 145.36875915527344 189.3733367919922 673.8873291015625
  175 1 2 146.89736938476562 190.809814453125 716.2584228515625
  176 1 3 149.94497680664062 191.6741180419922 759.4745483398438
  177 1 2 24.502220153808594 165.19476318359375 175.63418579101562
  178 1 1 47.27901840209961 189.05128479003906 201.28770446777344
  179 1 2 67.68036651611328 208.59707641601562 232.36880493164062
  180 1 1 85.2376480102539 222.38247680664062 268.58984375
  181 1 2 101.48554992675781 228.48275756835938 306.3511657714844
  182 1 1 112.69145965576172 233.8734130859375 346.7795104980469
  183 1 2 120.72219848632812 240.07371520996094 388.47967529296875
  184 1 1 126.74079895019531 237.60943603515625 430.49267578125
  185 1 2 129.6101531982422 238.0181884765625 473.18548583984375
  186 1 1 132.00701904296875 236.52183532714844 515.2484741210938
  187 1 2 132.25038146972656 239.63809204101562 557.087646484375
  188 1 1 132.1182403564453 238.89553833007812 598.4595947265625
  189 1 2 133.11219787597656 238.58868408203125 640.3870239257812
  190 1 1 131.93356323242188 240.142333984375 683.6661376953125
  191 1 2 135.16436767578125 241.0680389404297 726.3583374023438
  192 1 3 136.79042053222656 242.51248168945312 769.1563720703125
  193 1 2 58.690399169921875 300.27764892578125 153.3585662841797
  194 1 1 85.23011779785156 298.9515686035156 187.5045928955078
  195 1 2 105.86930847167969 292.0419006347656 227.896728515625
  196 1 1 115.956787109375 289.4867248535156 269.2147216796875
  197 1 2 123.77374267578125 289.5641174316406 310.5716857910156
  198 1 1 125.05937194824219 288.35467529296875 353.7252197265625
  199 1 2 125.37164306640625 290.8540344238281 397.8045349121094
  200 1 1 128.99691772460938 290.60980224609375 439.7924499511719
  201 1 2 136.28431701660156 292.0042724609375 481.5732421875
  202 1 1 139.1333465576172 290.0193786621094 523.1734008789062
  203 1 2 141.0191192626953 290.3727722167969 565.9402465820312
  204 1 1 142.8807373046875 289.89825439453125 608.4916381835938
  205 1 2 142.4532928466797 290.6268310546875 650.2606201171875
  206 1 1 142.87379455566406 293.0235595703125 693.9210205078125
  207 1 2 145.0795135498047 294.26947021484375 736.0790405273438
  208 1 3 147.86720275878906 294.48492431640625 778.0819702148438
  209 1 2 54.632869720458984 348.61212158203125 173.2911376953125
  210 1 1 83.13057708740234 350.52789306640625 206.34494018554688
  211 1 2 105.57138061523438 345.5032653808594 241.00616455078125
  212 1 1 126.14456176757812 341.02349853515625 279.8187561035156
  213 1 2 139.92138671875 337.71917724609375 319.09539794921875
  214 1 1 148.9342498779297 337.5167236328125 362.2578125
  215 1 2 152.5919189453125 338.46014404296875 404.30523681640625
  216 1 1 157.05601501464844 337.5502014160156 447.0052490234375
  217 1 2 161.61973571777344 336.0815734863281 488.458984375
  218 1 1 163.73873901367188 336.1147766113281 531.2959594726562
  219 1 2 167.21102905273438 333.5592956542969 573.3632202148438
  220 1 1 169.42283630371094 334.29803466796875 617.3313598632812
  221 1 2 170.92352294921875 333.517822265625 658.259765625
  222 1 1 173.31488037109375 336.435302734375 701.1025390625
  223 1 2 176.61436462402344 336.4416809082031 743.5841064453125
  224 1 3 179.4814453125 336.78485107421875 786.3598022460938
  225 1 3 252.9697265625 247.12100219726562 724.8706665039062

Bonds

  1 1 1 2
  2 1 3 4
  3 1 5 6
  4 1 7 8
  5 1 9 10
  6 1 11 12
  7 1 13 14
  8 1 15 16
  9 1 17 18
  10 1 19 20
  11 1 21 22
  12 1 23 24
  13 1 25 26
  14 1 27 28
  15 1 29 30
  16 1 31 32
  17 1 33 34
  18 1 35 36
  19 1 37 38
  20 1 39 40
  21 1 41 42
  22 1 43 44
  23 1 45 46
  24 1 47 48
  25 1 49 50
  26 1 51 52
  27 1 53 54
  28 1 55 56
  29 1 57 58
  30 1 59 60
  31 1 61 62
  32 1 63 64
  33 1 65 66
  34 1 67 68
  35 1 69 70
  36 1 71 72
  37 1 73 74
  38 1 75 76
  39 1 77 78
  40 1 79 80
  41 1 81 82
  42 1 83 84
  43 1 85 86
  44 1 87 88
  45 1 89 90
  46 1 91 92
  47 1 93 94
  48 1 95 96
  49 1 97 98
  50 1 99 100
  51 1 101 102
  52 1 103 104
  53 1 105 106
  54 1 107 108
  55 1 109 110
  56 1 111 112
  57 1 113 114
  58 1 115 116
  59 1 117 118
  60 1 119 120
  61 1 121 122
  62 1 123 124
  63 1 125 126
  64 1 127 128
  65 1 129 130
  66 1 131 132
  67 1 133 134
  68 1 135 136
  69 1 137 138
  70 1 139 140
  71 1 141 142
  72 1 143 144
  73 1 145 146
  74 1 147 148
  75 1 149 150
  76 1 151 152
  77 1 153 154
  78 1 155 156
  79 1 157 158
  80 1 159 160
  81 1 161 162
  82 1 163 164
  83 1 165 166
  84 1 167 168
  85 1 169 170
  86 1 171 172
  87 1 173 174
  88 1 175 176
  89 1 177 178
  90 1 179 180
  91 1 181 182
  92 1 183 184
  93 1 185 186
  94 1 187 188
  95 1 189 190
  96 1 191 192
  97 1 193 194
  98 1 195 196
  99 1 197 198
  100 1 199 200
  101 1 201 202
  102 1 203 204
  103 1 205 206
  104 1 207 208
  105 1 209 210
  106 1 211 212
  107 1 213 214
  108 1 215 216
  109 1 217 218
  110 1 219 220
  111 1 221 222
  112 1 223 224
  113 2 2 3
  114 2 4 5
  115 2 6 7
  116 2 8 9
  117 2 10 11
  118 2 12 13
  119 2 14 15
  120 2 18 19
  121 2 20 21
  122 2 22 23
  123 2 24 25
  124 2 26 27
  125 2 28 29
  126 2 30 31
  127 2 34 35
  128 2 36 37
  129 2 38 39
  130 2 40 41
  131 2 42 43
  132 2 44 45
  133 2 46 47
  134 2 50 51
  135 2 52 53
  136 2 54 55
  137 2 56 57
  138 2 58 59
  139 2 60 61
  140 2 62 63
  141 2 66 67
  142 2 68 69
  143 2 70 71
  144 2 72 73
  145 2 74 75
  146 2 76 77
  147 2 78 79
  148 2 82 83
  149 2 84 85
  150 2 86 87
  151 2 88 89
  152 2 90 91
  153 2 92 93
  154 2 94 95
  155 2 98 99
  156 2 100 101
  157 2 102 103
  158 2 104 105
  159 2 106 107
  160 2 108 109
  161 2 110 111
  162 2 114 115
  163 2 116 117
  164 2 118 119
  165 2 120 121
  166 2 122 123
  167 2 124 125
  168 2 126 127
  169 2 130 131
  170 2 132 133
  171 2 134 135
  172 2 136 137
  173 2 138 139
  174 2 140 141
  175 2 142 143
  176 2 146 147
  177 2 148 149
  178 2 150 151
  179 2 152 153
  180 2 154 155
  181 2 156 157
  182 2 158 159
  183 2 162 163
  184 2 164 165
  185 2 166 167
  186 2 168 169
  187 2 170 171
  188 2 172 173
  189 2 174 175
  190 2 178 179
  191 2 180 181
  192 2 182 183
  193 2 184 185
  194 2 186 187
  195 2 188 189
  196 2 190 191
  197 2 194 195
  198 2 196 197
  199 2 198 199
  200 2 200 201
  201 2 202 203
  202 2 204 205
  203 2 206 207
  204 2 210 211
  205 2 212 213
  206 2 214 215
  207 2 216 217
  208 2 218 219
  209 2 220 221
  210 2 222 223
  211 3 1 17
  212 3 3 19
  213 3 5 21
  214 3 7 23
  215 3 9 25
  216 3 11 27
  217 3 13 29
  218 3 15 31
  219 3 17 33
  220 3 19 35
  221 3 21 37
  222 3 23 39
  223 3 25 41
  224 3 27 43
  225 3 29 45
  226 3 31 47
  227 3 33 49
  228 3 35 51
  229 3 37 53
  230 3 39 55
  231 3 41 57
  232 3 43 59
  233 3 45 61
  234 3 47 63
  235 3 49 65
  236 3 51 67
  237 3 53 69
  238 3 55 71
  239 3 57 73
  240 3 59 75
  241 3 61 77
  242 3 63 79
  243 3 65 81
  244 3 67 83
  245 3 69 85
  246 3 71 87
  247 3 73 89
  248 3 75 91
  249 3 77 93
  250 3 79 95
  251 3 81 97
  252 3 83 99
  253 3 85 101
  254 3 87 103
  255 3 89 105
  256 3 91 107
  257 3 93 109
  258 3 95 111
  259 3 97 113
  260 3 99 115
  261 3 101 117
  262 3 103 119
  263 3 105 121
  264 3 107 123
  265 3 109 125
  266 3 111 127
  267 3 113 129
  268 3 115 131
  269 3 117 133
  270 3 119 135
  271 3 121 137
  272 3 123 139
  273 3 125 141
  274 3 127 143
  275 3 129 145
  276 3 131 147
  277 3 133 149
  278 3 135 151
  279 3 137 153
  280 3 139 155
  281 3 141 157
  282 3 143 159
  283 3 145 161
  284 3 147 163
  285 3 149 165
  286 3 151 167
  287 3 153 169
  288 3 155 171
  289 3 157 173
  290 3 159 175
  291 3 161 177
  292 3 163 179
  293 3 165 181
  294 3 167 183
  295 3 169 185
  296 3 171 187
  297 3 173 189
  298 3 175 191
  299 3 177 193
  300 3 179 195
  301 3 181 197
  302 3 183 199
  303 3 185 201
  304 3 187 203
  305 3 189 205
  306 3 191 207
  307 3 193 209
  308 3 195 211
  309 3 197 213
  310 3 199 215
  311 3 201 217
  312 3 203 219
  313 3 205 221
  314 3 207 223
  315 4 2 18
  316 4 4 20
  317 4 6 22
  318 4 8 24
  319 4 10 26
  320 4 12 28
  321 4 14 30
  322 4 16 32
  323 4 18 34
  324 4 20 36
  325 4 22 38
  326 4 24 40
  327 4 26 42
  328 4 28 44
  329 4 30 46
  330 4 32 48
  331 4 34 50
  332 4 36 52
  333 4 38 54
  334 4 40 56
  335 4 42 58
  336 4 44 60
  337 4 46 62
  338 4 48 64
  339 4 50 66
  340 4 52 68
  341 4 54 70
  342 4 56 72
  343 4 58 74
  344 4 60 76
  345 4 62 78
  346 4 64 80
  347 4 66 82
  348 4 68 84
  349 4 70 86
  350 4 72 88
  351 4 74 90
  352 4 76 92
  353 4 78 94
  354 4 80 96
  355 4 82 98
  356 4 84 100
  357 4 86 102
  358 4 88 104
  359 4 90 106
  360 4 92 108
  361 4 94 110
  362 4 96 112
  363 4 98 114
  364 4 100 116
  365 4 102 118
  366 4 104 120
  367 4 106 122
  368 4 108 124
  369 4 110 126
  370 4 112 128
  371 4 114 130
  372 4 116 132
  373 4 118 134
  374 4 120 136
  375 4 122 138
  376 4 124 140
  377 4 126 142
  378 4 128 144
  379 4 130 146
  380 4 132 148
  381 4 134 150
  382 4 136 152
  383 4 138 154
  384 4 140 156
  385 4 142 158
  386 4 144 160
  387 4 146 162
  388 4 148 164
  389 4 150 166
  390 4 152 168
  391 4 154 170
  392 4 156 172
  393 4 158 174
  394 4 160 176
  395 4 162 178
  396 4 164 180
  397 4 166 182
  398 4 168 184
  399 4 170 186
  400 4 172 188
  401 4 174 190
  402 4 176 192
  403 4 178 194
  404 4 180 196
  405 4 182 198
  406 4 184 200
  407 4 186 202
  408 4 188 204
  409 4 190 206
  410 4 192 208
  411 4 194 210
  412 4 196 212
  413 4 198 214
  414 4 200 216
  415 4 202 218
  416 4 204 220
  417 4 206 222
  418 4 208 224
  419 5 4 209
  420 5 5 210
  421 5 6 211
  422 5 7 212
  423 5 8 213
  424 5 9 214
  425 5 10 215
  426 5 11 216
  427 5 12 217
  428 5 13 218
  429 5 14 219
  430 5 15 220
  431 5 16 221
  432 6 1 18
  433 6 2 19
  434 6 3 20
  435 6 4 21
  436 6 5 22
  437 6 6 23
  438 6 7 24
  439 6 8 25
  440 6 9 26
  441 6 10 27
  442 6 11 28
  443 6 12 29
  444 6 13 30
  445 6 14 31
  446 6 15 32
  447 6 17 34
  448 6 18 35
  449 6 19 36
  450 6 20 37
  451 6 21 38
  452 6 22 39
  453 6 23 40
  454 6 24 41
  455 6 25 42
  456 6 26 43
  457 6 27 44
  458 6 28 45
  459 6 29 46
  460 6 30 47
  461 6 31 48
  462 6 33 50
  463 6 34 51
  464 6 35 52
  465 6 36 53
  466 6 37 54
  467 6 38 55
  468 6 39 56
  469 6 40 57
  470 6 41 58
  471 6 42 59
  472 6 43 60
  473 6 44 61
  474 6 45 62
  475 6 46 63
  476 6 47 64
  477 6 49 66
  478 6 50 67
  479 6 51 68
  480 6 52 69
  481 6 53 70
  482 6 54 71
  483 6 55 72
  484 6 56 73
  485 6 57 74
  486 6 58 75
  487 6 59 76
  488 6 60 77
  489 6 61 78
  490 6 62 79
  491 6 63 80
  492 6 65 82
  493 6 66 83
  494 6 67 84
  495 6 68 85
  496 6 69 86
  497 6 70 87
  498 6 71 88
  499 6 72 89
  500 6 73 90
  501 6 74 91
  502 6 75 92
  503 6 76 93
  504 6 77 94
  505 6 78 95
  506 6 79 96
  507 6 81 98
  508 6 82 99
  509 6 83 100
  510 6 84 101
  511 6 85 102
  512 6 86 103
  513 6 87 104
  514 6 88 105
  515 6 89 106
  516 6 90 107
  517 6 91 108
  518 6 92 109
  519 6 93 110
  520 6 94 111
  521 6 95 112
  522 6 97 114
  523 6 98 115
  524 6 99 116
  525 6 100 117
  526 6 101 118
  527 6 102 119
  528 6 103 120
  529 6 104 121
  530 6 105 122
  531 6 106 123
  532 6 107 124
  533 6 108 125
  534 6 109 126
  535 6 110 127
  536 6 111 128
  537 6 113 130
  538 6 114 131
  539 6 115 132
  540 6 116 133
  541 6 117 134
  542 6 118 135
  543 6 119 136
  544 6 120 137
  545 6 121 138
  546 6 122 139
  547 6 123 140
  548 6 124 141
  549 6 125 142
  550 6 126 143
  551 6 127 144
  552 6 129 146
  553 6 130 147
  554 6 131 148
  555 6 132 149
  556 6 133 150
  557 6 134 151
  558 6 135 152
  559 6 136 153
  560 6 137 154
  561 6 138 155
  562 6 139 156
  563 6 140 157
  564 6 141 158
  565 6 142 159
  566 6 143 160
  567 6 145 162
  568 6 146 163
  569 6 147 164
  570 6 148 165
  571 6 149 166
  572 6 150 167
  573 6 151 168
  574 6 152 169
  575 6 153 170
  576 6 154 171
  577 6 155 172
  578 6 156 173
  579 6 157 174
  580 6 158 175
  581 6 159 176
  582 6 161 178
  583 6 162 179
  584 6 163 180
  585 6 164 181
  586 6 165 182
  587 6 166 183
  588 6 167 184
  589 6 168 185
  590 6 169 186
  591 6 170 187
  592 6 171 188
  593 6 172 189
  594 6 173 190
  595 6 174 191
  596 6 175 192
  597 6 177 194
  598 6 178 195
  599 6 179 196
  600 6 180 197
  601 6 181 198
  602 6 182 199
  603 6 183 200
  604 6 184 201
  605 6 185 202
  606 6 186 203
  607 6 187 204
  608 6 188 205
  609 6 189 206
  610 6 190 207
  611 6 191 208
  612 6 193 210
  613 6 194 211
  614 6 195 212
  615 6 196 213
  616 6 197 214
  617 6 198 215
  618 6 199 216
  619 6 200 217
  620 6 201 218
  621 6 202 219
  622 6 203 220
  623 6 204 221
  624 6 205 222
  625 6 206 223
  626 6 207 224
  627 6 209 5
  628 6 210 6
  629 6 211 7
  630 6 212 8
  631 6 213 9
  632 6 214 10
  633 6 215 11
  634 6 216 12
  635 6 217 13
  636 6 218 14
  637 6 219 15
  638 6 220 16
  639 7 17 2
  640 7 18 3
  641 7 19 4
  642 7 20 5
  643 7 21 6
  644 7 22 7
  645 7 23 8
  646 7 24 9
  647 7 25 10
  648 7 26 11
  649 7 27 12
  650 7 28 13
  651 7 29 14
  652 7 30 15
  653 7 31 16
  654 7 33 18
  655 7 34 19
  656 7 35 20
  657 7 36 21
  658 7 37 22
  659 7 38 23
  660 7 39 24
  661 7 40 25
  662 7 41 26
  663 7 42 27
  664 7 43 28
  665 7 44 29
  666 7 45 30
  667 7 46 31
  668 7 47 32
  669 7 49 34
  670 7 50 35
  671 7 51 36
  672 7 52 37
  673 7 53 38
  674 7 54 39
  675 7 55 40
  676 7 56 41
  677 7 57 42
  678 7 58 43
  679 7 59 44
  680 7 60 45
  681 7 61 46
  682 7 62 47
  683 7 63 48
  684 7 65 50
  685 7 66 51
  686 7 67 52
  687 7 68 53
  688 7 69 54
  689 7 70 55
  690 7 71 56
  691 7 72 57
  692 7 73 58
  693 7 74 59
  694 7 75 60
  695 7 76 61
  696 7 77 62
  697 7 78 63
  698 7 79 64
  699 7 81 66
  700 7 82 67
  701 7 83 68
  702 7 84 69
  703 7 85 70
  704 7 86 71
  705 7 87 72
  706 7 88 73
  707 7 89 74
  708 7 90 75
  709 7 91 76
  710 7 92 77
  711 7 93 78
  712 7 94 79
  713 7 95 80
  714 7 97 82
  715 7 98 83
  716 7 99 84
  717 7 100 85
  718 7 101 86
  719 7 102 87
  720 7 103 88
  721 7 104 89
  722 7 105 90
  723 7 106 91
  724 7 107 92
  725 7 108 93
  726 7 109 94
  727 7 110 95
  728 7 111 96
  729 7 113 98
  730 7 114 99
  731 7 115 100
  732 7 116 101
  733 7 117 102
  734 7 118 103
  735 7 119 104
  736 7 120 105
  737 7 121 106
  738 7 122 107
  739 7 123 108
  740 7 124 109
  741 7 125 110
  742 7 126 111
  743 7 127 112
  744 7 129 114
  745 7 130 115
  746 7 131 116
  747 7 132 117
  748 7 133 118
  749 7 134 119
  750 7 135 120
  751 7 136 121
  752 7 137 122
  753 7 138 123
  754 7 139 124
  755 7 140 125
  756 7 141 126
  757 7 142 127
  758 7 143 128
  759 7 145 130
  760 7 146 131
  761 7 147 132
  762 7 148 133
  763 7 149 134
  764 7 150 135
  765 7 151 136
  766 7 152 137
  767 7 153 138
  768 7 154 139
  769 7 155 140
  770 7 156 141
  771 7 157 142
  772 7 158 143
  773 7 159 144
  774 7 161 146
  775 7 162 147
  776 7 163 148
  777 7 164 149
  778 7 165 150
  779 7 166 151
  780 7 167 152
  781 7 168 153
  782 7 169 154
  783 7 170 155
  784 7 171 156
  785 7 172 157
  786 7 173 158
  787 7 174 159
  788 7 175 160
  789 7 177 162
  790 7 178 163
  791 7 179 164
  792 7 180 165
  793 7 181 166
  794 7 182 167
  795 7 183 168
  796 7 184 169
  797 7 185 170
  798 7 186 171
  799 7 187 172
  800 7 188 173
  801 7 189 174
  802 7 190 175
  803 7 191 176
  804 7 193 178
  805 7 194 179
  806 7 195 180
  807 7 196 181
  808 7 197 182
  809 7 198 183
  810 7 199 184
  811 7 200 185
  812 7 201 186
  813 7 202 187
  814 7 203 188
  815 7 204 189
  816 7 205 190
  817 7 206 191
  818 7 207 192
  819 7 209 194
  820 7 210 195
  821 7 211 196
  822 7 212 197
  823 7 213 198
  824 7 214 199
  825 7 215 200
  826 7 216 201
  827 7 217 202
  828 7 218 203
  829 7 219 204
  830 7 220 205
  831 7 221 206
  832 7 222 207
  833 7 223 208
  834 7 3 209
  835 7 4 210
  836 7 5 211
  837 7 6 212
  838 7 7 213
  839 7 8 214
  840 7 9 215
  841 7 10 216
  842 7 11 217
  843 7 12 218
  844 7 13 219
  845 7 14 220
  846 7 15 221
  847 7 16 222

Angles

  1 1 2 3 4
  2 1 4 5 6
  3 1 6 7 8
  4 1 8 9 10
  5 1 10 11 12
  6 1 12 13 14
  7 1 14 15 16
  8 1 18 19 20
  9 1 20 21 22
  10 1 22 23 24
  11 1 24 25 26
  12 1 26 27 28
  13 1 28 29 30
  14 1 30 31 32
  15 1 34 35 36
  16 1 36 37 38
  17 1 38 39 40
  18 1 40 41 42
  19 1 42 43 44
  20 1 44 45 46
  21 1 46 47 48
  22 1 50 51 52
  23 1 52 53 54
  24 1 54 55 56
  25 1 56 57 58
  26 1 58 59 60
  27 1 60 61 62
  28 1 62 63 64
  29 1 66 67 68
  30 1 68 69 70
  31 1 70 71 72
  32 1 72 73 74
  33 1 74 75 76
  34 1 76 77 78
  35 1 78 79 80
  36 1 82 83 84
  37 1 84 85 86
  38 1 86 87 88
  39 1 88 89 90
  40 1 90 91 92
  41 1 92 93 94
  42 1 94 95 96
  43 1 98 99 100
  44 1 100 101 102
  45 1 102 103 104
  46 1 104 105 106
  47 1 106 107 108
  48 1 108 109 110
  49 1 110 111 112
  50 1 114 115 116
  51 1 116 117 118
  52 1 118 119 120
  53 1 120 121 122
  54 1 122 123 124
  55 1 124 125 126
  56 1 126 127 128
  57 1 130 131 132
  58 1 132 133 134
  59 1 134 135 136
  60 1 136 137 138
  61 1 138 139 140
  62 1 140 141 142
  63 1 142 143 144
  64 1 146 147 148
  65 1 148 149 150
  66 1 150 151 152
  67 1 152 153 154
  68 1 154 155 156
  69 1 156 157 158
  70 1 158 159 160
  71 1 162 163 164
  72 1 164 165 166
  73 1 166 167 168
  74 1 168 169 170
  75 1 170 171 172
  76 1 172 173 174
  77 1 174 175 176
  78 1 178 179 180
  79 1 180 181 182
  80 1 182 183 184
  81 1 184 185 186
  82 1 186 187 188
  83 1 188 189 190
  84 1 190 191 192
  85 1 194 195 196
  86 1 196 197 198
  87 1 198 199 200
  88 1 200 201 202
  89 1 202 203 204
  90 1 204 205 206
  91 1 206 207 208
  92 1 210 211 212
  93 1 212 213 214
  94 1 214 215 216
  95 1 216 217 218
  96 1 218 219 220
  97 1 220 221 222
  98 1 222 223 224
  99 2 1 2 3
  100 2 3 4 5
  101 2 5 6 7
  102 2 7 8 9
  103 2 9 10 11
  104 2 11 12 13
  105 2 13 14 15
  106 2 17 18 19
  107 2 19 20 21
  108 2 21 22 23
  109 2 23 24 25
  110 2 25 26 27
  111 2 27 28 29
  112 2 29 30 31
  113 2 33 34 35
  114 2 35 36 37
  115 2 37 38 39
  116 2 39 40 41
  117 2 41 42 43
  118 2 43 44 45
  119 2 45 46 47
  120 2 49 50 51
  121 2 51 52 53
  122 2 53 54 55
  123 2 55 56 57
  124 2 57 58 59
  125 2 59 60 61
  126 2 61 62 63
  127 2 65 66 67
  128 2 67 68 69
  129 2 69 70 71
  130 2 71 72 73
  131 2 73 74 75
  132 2 75 76 77
  133 2 77 78 79
  134 2 81 82 83
  135 2 83 84 85
  136 2 85 86 87
  137 2 87 88 89
  138 2 89 90 91